 DBCSR| CPU Multiplication driver                                           BLAS (U)
 DBCSR| Multrec recursion limit                                              512 (U)
 DBCSR| Multiplication stack size                                           1000 (D)
 DBCSR| Maximum elements for images                                    UNLIMITED (U)
 DBCSR| Multiplicative factor virtual images                                   1 (U)
 DBCSR| Use multiplication densification                                       T (D)
 DBCSR| Multiplication size stacks                                             3 (U)
 DBCSR| Use memory pool for CPU allocation                                     F (U)
 DBCSR| Number of 3D layers                                               SINGLE (U)
 DBCSR| Use MPI memory allocation                                              F (U)
 DBCSR| Use RMA algorithm                                                      F (U)
 DBCSR| Use Communication thread                                               T (U)
 DBCSR| Communication thread load                                             87 (D)
 DBCSR| MPI: My process id                                                     0
 DBCSR| MPI: Number of processes                                               8
 DBCSR| OMP: Current number of threads                                         1
 DBCSR| OMP: Max number of threads                                             1
 DBCSR| Split modifier for TAS multiplication algorithm                  1.0E+00 (U)


  **** **** ******  **  PROGRAM STARTED AT               2025-06-04 17:01:10.063
 ***** ** ***  *** **   PROGRAM STARTED ON                          17f87a7d41ad
 **    ****   ******    PROGRAM STARTED BY                             marcellop
 ***** **    ** ** **   PROGRAM PROCESS ID                                194088
  **** **  *******  **  PROGRAM STARTED IN /datasets/teams/dcgpu_training/epcc/m
                                           arcellop/fork_cp2k/benchmarks/HFX_LIB
                                           GINT/H2O

 CP2K| version string:                 CP2K version 2025.1 (Development Version)
 CP2K| source code revision number:                                  git:9d0b28a
 CP2K| cp2kflags: omp libint fftw3 libxc libgrpp parallel scalapack mpi_f08 offl
 CP2K|            oad_hip no_offload_grid no_offload_pw libGint
 CP2K| is freely available from                            https://www.cp2k.org/
 CP2K| Program compiled at                          Thu May 29 14:08:00 UTC 2025
 CP2K| Program compiled on                                          9c23e1f7dbd1
 CP2K| Program compiled for                                            local_hip
 CP2K| Data directory path    /datasets/teams/dcgpu_training/epcc/marcellop/fork
 CP2K| Input file name                                        H2O-HFX-32.gpu.inp

 GLOBAL| Force Environment number                                              1
 GLOBAL| Basis set file name                                      GTH_BASIS_SETS
 GLOBAL| Potential file name                                           POTENTIAL
 GLOBAL| MM Potential file name                                     MM_POTENTIAL
 GLOBAL| Coordinate file name                                      __STD_INPUT__
 GLOBAL| Method name                                                        CP2K
 GLOBAL| Project name                                                     H2O-32
 GLOBAL| Run type                                                         ENERGY
 GLOBAL| FFT library                                                       FFTW3
 GLOBAL| Diagonalization library                                       ScaLAPACK
 GLOBAL| DGEMM library                                                      BLAS
 GLOBAL| Orthonormality check for eigenvectors enabled                 1.000E-12
 GLOBAL| Matrix multiplication library                                 ScaLAPACK
 GLOBAL| All-to-all communication in single precision                          F
 GLOBAL| FFTs using library dependent lengths                                  F
 GLOBAL| Grid backend                                                       AUTO
 GLOBAL| Global print level                                               MEDIUM
 GLOBAL| MPI I/O enabled                                                       T
 GLOBAL| Total number of message passing processes                             8
 GLOBAL| Number of threads for this process                                    1
 GLOBAL| This output is from process                                           0
 GLOBAL| OpenMP stack size per thread (OMP_STACKSIZE)                    default
 GLOBAL| CPU model name                          AMD Instinct MI300A Accelerator
 GLOBAL| CPUID                                                              1003

 MEMORY| system memory details [Kb]
 MEMORY|                        rank 0           min           max       average
 MEMORY| MemTotal            526630620     526630620     526630620     526630620
 MEMORY| MemFree             505425420     505425420     505425420     505425420
 MEMORY| Buffers                424692        424692        424692        424692
 MEMORY| Cached                6375996       6375996       6375996       6375996
 MEMORY| Slab                  1702528       1702528       1702528       1702528
 MEMORY| SReclaimable           871984        871984        871984        871984
 MEMORY| MemLikelyFree       513098092     513098092     513098092     513098092


 *** Fundamental physical constants (SI units) ***

 *** Literature: B. J. Mohr and B. N. Taylor,
 ***             CODATA recommended values of the fundamental physical
 ***             constants: 2006, Web Version 5.1
 ***             http://physics.nist.gov/constants

 Speed of light in vacuum [m/s]                             2.99792458000000E+08
 Magnetic constant or permeability of vacuum [N/A**2]       1.25663706143592E-06
 Electric constant or permittivity of vacuum [F/m]          8.85418781762039E-12
 Planck constant (h) [J*s]                                  6.62606896000000E-34
 Planck constant (h-bar) [J*s]                              1.05457162825177E-34
 Elementary charge [C]                                      1.60217648700000E-19
 Electron mass [kg]                                         9.10938215000000E-31
 Electron g factor [ ]                                     -2.00231930436220E+00
 Proton mass [kg]                                           1.67262163700000E-27
 Fine-structure constant                                    7.29735253760000E-03
 Rydberg constant [1/m]                                     1.09737315685270E+07
 Avogadro constant [1/mol]                                  6.02214179000000E+23
 Boltzmann constant [J/K]                                   1.38065040000000E-23
 Atomic mass unit [kg]                                      1.66053878200000E-27
 Bohr radius [m]                                            5.29177208590000E-11

 *** Conversion factors ***

 [u] -> [a.u.]                                              1.82288848426455E+03
 [Angstrom] -> [Bohr] = [a.u.]                              1.88972613288564E+00
 [a.u.] = [Bohr] -> [Angstrom]                              5.29177208590000E-01
 [a.u.] -> [s]                                              2.41888432650478E-17
 [a.u.] -> [fs]                                             2.41888432650478E-02
 [a.u.] -> [J]                                              4.35974393937059E-18
 [a.u.] -> [N]                                              8.23872205491840E-08
 [a.u.] -> [K]                                              3.15774647902944E+05
 [a.u.] -> [kJ/mol]                                         2.62549961709828E+03
 [a.u.] -> [kcal/mol]                                       6.27509468713739E+02
 [a.u.] -> [Pa]                                             2.94210107994716E+13
 [a.u.] -> [bar]                                            2.94210107994716E+08
 [a.u.] -> [atm]                                            2.90362800883016E+08
 [a.u.] -> [eV]                                             2.72113838565563E+01
 [a.u.] -> [Hz]                                             6.57968392072181E+15
 [a.u.] -> [1/cm] (wave numbers)                            2.19474631370540E+05
 [a.u./Bohr**2] -> [1/cm]                                   5.14048714338585E+03
 

 CELL_TOP| Volume [angstrom^3]:                                       956.486846
 CELL_TOP| Vector a [angstrom     9.853     0.000     0.000   |a| =     9.852800
 CELL_TOP| Vector b [angstrom     0.000     9.853     0.000   |b| =     9.852800
 CELL_TOP| Vector c [angstrom     0.000     0.000     9.853   |c| =     9.852800
 CELL_TOP| Angle (b,c), alpha [degree]:                                90.000000
 CELL_TOP| Angle (a,c), beta  [degree]:                                90.000000
 CELL_TOP| Angle (a,b), gamma [degree]:                                90.000000
 CELL_TOP| Numerically orthorhombic:                                         YES
 CELL_TOP| Periodicity                                                       XYZ

 GENERATE|  Preliminary Number of Bonds generated:                             0
 GENERATE|  Achieved consistency in connectivity generation.

 CELL| Volume [angstrom^3]:                                           956.486846
 CELL| Vector a [angstrom]:       9.853     0.000     0.000   |a| =     9.852800
 CELL| Vector b [angstrom]:       0.000     9.853     0.000   |b| =     9.852800
 CELL| Vector c [angstrom]:       0.000     0.000     9.853   |c| =     9.852800
 CELL| Angle (b,c), alpha [degree]:                                    90.000000
 CELL| Angle (a,c), beta  [degree]:                                    90.000000
 CELL| Angle (a,b), gamma [degree]:                                    90.000000
 CELL| Numerically orthorhombic:                                             YES
 CELL| Periodicity                                                           XYZ

 CELL_REF| Volume [angstrom^3]:                                       956.486846
 CELL_REF| Vector a [angstrom     9.853     0.000     0.000   |a| =     9.852800
 CELL_REF| Vector b [angstrom     0.000     9.853     0.000   |b| =     9.852800
 CELL_REF| Vector c [angstrom     0.000     0.000     9.853   |c| =     9.852800
 CELL_REF| Angle (b,c), alpha [degree]:                                90.000000
 CELL_REF| Angle (a,c), beta  [degree]:                                90.000000
 CELL_REF| Angle (a,b), gamma [degree]:                                90.000000
 CELL_REF| Numerically orthorhombic:                                         YES
 CELL_REF| Periodicity                                                       XYZ

 *******************************************************************************
 *******************************************************************************
 **                                                                           **
 **     #####                         ##              ##                      **
 **    ##   ##            ##          ##              ##                      **
 **   ##     ##                       ##            ######                    **
 **   ##     ##  ##   ##  ##   #####  ##  ##   ####   ##    #####    #####    **
 **   ##     ##  ##   ##  ##  ##      ## ##   ##      ##   ##   ##  ##   ##   **
 **   ##  ## ##  ##   ##  ##  ##      ####     ###    ##   ######   ######    **
 **    ##  ###   ##   ##  ##  ##      ## ##      ##   ##   ##       ##        **
 **     #######   #####   ##   #####  ##  ##  ####    ##    #####   ##        **
 **           ##                                                    ##        **
 **                                                                           **
 **                                                ... make the atoms dance   **
 **                                                                           **
 **            Copyright (C) by CP2K developers group (2000-2025)             **
 **                      J. Chem. Phys. 152, 194103 (2020)                    **
 **                                                                           **
 *******************************************************************************

 DFT| Spin restricted Kohn-Sham (RKS) calculation                            RKS
 DFT| Multiplicity                                                             1
 DFT| Number of spin states                                                    1
 DFT| Charge                                                                   0
 DFT| Self-interaction correction (SIC)                                       NO
 DFT| Cutoffs: density                                              1.000000E-10
 DFT|          gradient                                             1.000000E-10
 DFT|          tau                                                  1.000000E-10
 DFT|          cutoff_smoothing_range                               0.000000E+00
 DFT| XC density smoothing                                                  NONE
 DFT| XC derivatives                                                          PW

 FUNCTIONAL| NO EXCHANGE-CORRELATION FUNCTIONAL USED.


 QS| Method:                                                                 GPW
 QS| Density plane wave grid type                        NON-SPHERICAL FULLSPACE
 QS| Number of grid levels:                                                    4
 QS| Density cutoff [a.u.]:                                                 70.0
 QS| Multi grid cutoff [a.u.]: 1) grid level                                70.0
 QS|                           2) grid level                                23.3
 QS|                           3) grid level                                 7.8
 QS|                           4) grid level                                 2.6
 QS| Grid level progression factor:                                          3.0
 QS| Relative density cutoff [a.u.]:                                         5.0
 QS| Interaction thresholds: eps_pgf_orb:                                1.0E-06
 QS|                         eps_filter_matrix:                          0.0E+00
 QS|                         eps_core_charge:                            1.0E-14
 QS|                         eps_rho_gspace:                             1.0E-12
 QS|                         eps_rho_rspace:                             1.0E-12
 QS|                         eps_gvg_rspace:                             1.0E-06
 QS|                         eps_ppl:                                    1.0E-02
 QS|                         eps_ppnl:                                   1.0E-08


 ATOMIC KIND INFORMATION

  1. Atomic kind: O                                     Number of atoms:      32

     Orbital Basis Set                                                 TZV2P-GTH

       Number of orbital shell sets:                                           2
       Number of orbital shells:                                               8
       Number of primitive Cartesian functions:                                7
       Number of Cartesian basis functions:                                   24
       Number of spherical basis functions:                                   22
       Norm type:                                                              2

       Normalised Cartesian orbitals:

                        Set   Shell   Orbital            Exponent    Coefficient

                          1       1    2s               10.267442       0.404544
                                                         3.748050       0.199889
                                                         1.330834      -0.336302
                                                         0.455680      -0.246356
                                                         0.146292      -0.028287

                          1       2    3s               10.267442       0.000000
                                                         3.748050       0.000000
                                                         1.330834       0.000000
                                                         0.455680       0.395280
                                                         0.146292       0.000000

                          1       3    4s               10.267442       0.000000
                                                         3.748050       0.000000
                                                         1.330834       0.000000
                                                         0.455680       0.000000
                                                         0.146292       0.168588

                          1       4    3px              10.267442      -1.561025
                                                         3.748050      -1.394275
                                                         1.330834      -0.754014
                                                         0.455680      -0.224400
                                                         0.146292      -0.029841
                          1       4    3py              10.267442      -1.561025
                                                         3.748050      -1.394275
                                                         1.330834      -0.754014
                                                         0.455680      -0.224400
                                                         0.146292      -0.029841
                          1       4    3pz              10.267442      -1.561025
                                                         3.748050      -1.394275
                                                         1.330834      -0.754014
                                                         0.455680      -0.224400
                                                         0.146292      -0.029841

                          1       5    4px              10.267442       0.000000
                                                         3.748050       0.000000
                                                         1.330834       0.000000
                                                         0.455680       0.533661
                                                         0.146292       0.000000
                          1       5    4py              10.267442       0.000000
                                                         3.748050       0.000000
                                                         1.330834       0.000000
                                                         0.455680       0.533661
                                                         0.146292       0.000000
                          1       5    4pz              10.267442       0.000000
                                                         3.748050       0.000000
                                                         1.330834       0.000000
                                                         0.455680       0.533661
                                                         0.146292       0.000000

                          1       6    5px              10.267442       0.000000
                                                         3.748050       0.000000
                                                         1.330834       0.000000
                                                         0.455680       0.000000
                                                         0.146292       0.128963
                          1       6    5py              10.267442       0.000000
                                                         3.748050       0.000000
                                                         1.330834       0.000000
                                                         0.455680       0.000000
                                                         0.146292       0.128963
                          1       6    5pz              10.267442       0.000000
                                                         3.748050       0.000000
                                                         1.330834       0.000000
                                                         0.455680       0.000000
                                                         0.146292       0.128963

                          2       1    3dx2              2.314000       7.145709
                                                         0.645000       0.000000
                          2       1    3dxy              2.314000      12.376731
                                                         0.645000       0.000000
                          2       1    3dxz              2.314000      12.376731
                                                         0.645000       0.000000
                          2       1    3dy2              2.314000       7.145709
                                                         0.645000       0.000000
                          2       1    3dyz              2.314000      12.376731
                                                         0.645000       0.000000
                          2       1    3dz2              2.314000       7.145709
                                                         0.645000       0.000000

                          2       2    4dx2              2.314000       0.000000
                                                         0.645000       0.764080
                          2       2    4dxy              2.314000       0.000000
                                                         0.645000       1.323426
                          2       2    4dxz              2.314000       0.000000
                                                         0.645000       1.323426
                          2       2    4dy2              2.314000       0.000000
                                                         0.645000       0.764080
                          2       2    4dyz              2.314000       0.000000
                                                         0.645000       1.323426
                          2       2    4dz2              2.314000       0.000000
                                                         0.645000       0.764080

       Atomic covalent radius [Angstrom]:                                  0.730

       Atomic van der Waals radius [Angstrom]:                             1.520

     GTH Potential information for                                   GTH-PADE-q6

       Description:                       Goedecker-Teter-Hutter pseudopotential
                                           Goedecker et al., PRB 54, 1703 (1996)
                                          Hartwigsen et al., PRB 58, 3641 (1998)
                                                      Krack, TCA 114, 145 (2005)

       Gaussian exponent of the core charge distribution:               8.154466
       Electronic configuration (s p d ...):                               2   4

       Parameters of the local part of the GTH pseudopotential:

                          rloc        C1          C2          C3          C4
                        0.247621  -16.580318    2.395701

       Parameters of the non-local part of the GTH pseudopotential:

                   l      r(l)      h(i,j,l)

                   0    0.221786   18.266917
                   1    0.256829

  2. Atomic kind: H                                     Number of atoms:      64

     Orbital Basis Set                                                 TZV2P-GTH

       Number of orbital shell sets:                                           2
       Number of orbital shells:                                               5
       Number of primitive Cartesian functions:                                7
       Number of Cartesian basis functions:                                    9
       Number of spherical basis functions:                                    9
       Norm type:                                                              2

       Normalised Cartesian orbitals:

                        Set   Shell   Orbital            Exponent    Coefficient

                          1       1    1s               10.882724      -0.071340
                                                         3.096875      -0.104410
                                                         0.987452      -0.135375
                                                         0.345069      -0.133923
                                                         0.149269      -0.073092

                          1       2    2s               10.882724       0.000000
                                                         3.096875       0.000000
                                                         0.987452       0.000000
                                                         0.345069       0.320878
                                                         0.149269       0.000000

                          1       3    3s               10.882724       0.000000
                                                         3.096875       0.000000
                                                         0.987452       0.000000
                                                         0.345069       0.000000
                                                         0.149269       0.171154

                          2       1    2px               1.407000       2.184277
                                                         0.388000       0.000000
                          2       1    2py               1.407000       2.184277
                                                         0.388000       0.000000
                          2       1    2pz               1.407000       2.184277
                                                         0.388000       0.000000

                          2       2    3px               1.407000       0.000000
                                                         0.388000       0.436495
                          2       2    3py               1.407000       0.000000
                                                         0.388000       0.436495
                          2       2    3pz               1.407000       0.000000
                                                         0.388000       0.436495

       Atomic covalent radius [Angstrom]:                                  0.320

       Atomic van der Waals radius [Angstrom]:                             1.090

     GTH Potential information for                                   GTH-PADE-q1

       Description:                       Goedecker-Teter-Hutter pseudopotential
                                           Goedecker et al., PRB 54, 1703 (1996)
                                          Hartwigsen et al., PRB 58, 3641 (1998)
                                                      Krack, TCA 114, 145 (2005)

       Gaussian exponent of the core charge distribution:              12.500000
       Electronic configuration (s p d ...):                                   1

       Parameters of the local part of the GTH pseudopotential:

                          rloc        C1          C2          C3          C4
                        0.200000   -4.180237    0.725075


 MOLECULE KIND INFORMATION


 All atoms are their own molecule, skipping detailed information


 TOTAL NUMBERS AND MAXIMUM NUMBERS

  Total number of            - Atomic kinds:                                   2
                             - Atoms:                                         96
                             - Shell sets:                                   192
                             - Shells:                                       576
                             - Primitive Cartesian functions:                672
                             - Cartesian basis functions:                   1344
                             - Spherical basis functions:                   1280

  Maximum angular momentum of- Orbital basis functions:                        2
                             - Local part of the GTH pseudopotential:          2
                             - Non-local part of the GTH pseudopotential:      0


 MODULE QUICKSTEP: ATOMIC COORDINATES IN ANGSTROM

   Atom Kind Element         X             Y             Z       Z(eff)     Mass
      1    1 O     8      2.280398      9.146539      5.088696   6.0000  15.9994
      2    1 O     8      1.251703      2.406261      7.769908   6.0000  15.9994
      3    1 O     8      1.596302      6.920128      0.656695   6.0000  15.9994
      4    1 O     8      2.957518      3.771868      1.877387   6.0000  15.9994
      5    1 O     8      0.228972      5.884026      6.532308   6.0000  15.9994
      6    1 O     8      9.023431      6.119654      0.092451   6.0000  15.9994
      7    1 O     8      7.256289      8.493641      5.772041   6.0000  15.9994
      8    1 O     8      5.090422      9.467016      0.743177   6.0000  15.9994
      9    1 O     8      6.330888      7.363471      3.747750   6.0000  15.9994
     10    1 O     8      7.763819      8.349367      9.279457   6.0000  15.9994
     11    1 O     8      8.280798      3.837153      5.799282   6.0000  15.9994
     12    1 O     8      8.878250      2.025797      1.664102   6.0000  15.9994
     13    1 O     8      9.160372      0.285100      6.871004   6.0000  15.9994
     14    1 O     8      4.962043      4.134437      0.173376   6.0000  15.9994
     15    1 O     8      2.802896      8.690383      2.435952   6.0000  15.9994
     16    1 O     8      9.123223      3.549232      8.876721   6.0000  15.9994
     17    1 O     8      1.453702      1.402538      2.358278   6.0000  15.9994
     18    1 O     8      6.536550      1.146790      7.609732   6.0000  15.9994
     19    1 O     8      2.766709      0.881503      9.544263   6.0000  15.9994
     20    1 O     8      0.856426      2.075964      5.010625   6.0000  15.9994
     21    1 O     8      6.386036      1.918950      0.242690   6.0000  15.9994
     22    1 O     8      2.733023      4.452756      5.850203   6.0000  15.9994
     23    1 O     8      4.600039      9.254314      6.575944   6.0000  15.9994
     24    1 O     8      3.665373      6.210561      3.158420   6.0000  15.9994
     25    1 O     8      3.371648      6.925594      7.476036   6.0000  15.9994
     26    1 O     8      5.287920      3.270653      6.155080   6.0000  15.9994
     27    1 O     8      5.225237      6.959594      9.582991   6.0000  15.9994
     28    1 O     8      0.846293      5.595877      3.820630   6.0000  15.9994
     29    1 O     8      9.785620      8.164617      3.657879   6.0000  15.9994
     30    1 O     8      8.509982      4.430362      2.679946   6.0000  15.9994
     31    1 O     8      1.337625      8.580920      8.272484   6.0000  15.9994
     32    1 O     8      8.054437      9.221335      1.991376   6.0000  15.9994
     33    2 H     1      1.762019      9.820429      5.528454   1.0000   1.0079
     34    2 H     1      3.095987      9.107088      5.588186   1.0000   1.0079
     35    2 H     1      0.554129      2.982634      8.082024   1.0000   1.0079
     36    2 H     1      1.771257      2.954779      7.182181   1.0000   1.0079
     37    2 H     1      2.112148      6.126321      0.798136   1.0000   1.0079
     38    2 H     1      1.776389      7.463264      1.424030   1.0000   1.0079
     39    2 H     1      3.754249      3.824017      1.349436   1.0000   1.0079
     40    2 H     1      3.010580      4.524142      2.466878   1.0000   1.0079
     41    2 H     1      0.939475      5.243834      6.571945   1.0000   1.0079
     42    2 H     1      0.515723      6.520548      5.877445   1.0000   1.0079
     43    2 H     1      9.852960      6.490366      0.393593   1.0000   1.0079
     44    2 H     1      8.556008      6.860063     -0.294256   1.0000   1.0079
     45    2 H     1      7.886607      7.941321      6.234506   1.0000   1.0079
     46    2 H     1      7.793855      9.141028      5.315813   1.0000   1.0079
     47    2 H     1      4.467366      9.971162      0.219851   1.0000   1.0079
     48    2 H     1      5.758685     10.102795      0.998994   1.0000   1.0079
     49    2 H     1      6.652693      7.917443      3.036562   1.0000   1.0079
     50    2 H     1      6.711966      7.743594      4.539279   1.0000   1.0079
     51    2 H     1      7.751955      8.745180     10.150905   1.0000   1.0079
     52    2 H     1      7.829208      9.092212      8.679343   1.0000   1.0079
     53    2 H     1      8.312540      3.218330      6.528858   1.0000   1.0079
     54    2 H     1      8.508855      4.680699      6.189990   1.0000   1.0079
     55    2 H     1      9.742249      1.704975      1.922581   1.0000   1.0079
     56    2 H     1      8.799060      2.876412      2.095861   1.0000   1.0079
     57    2 H     1      9.505360      1.161677      6.701213   1.0000   1.0079
     58    2 H     1      9.920117     -0.219794      7.161006   1.0000   1.0079
     59    2 H     1      4.749903      4.186003     -0.758595   1.0000   1.0079
     60    2 H     1      5.248010      5.018415      0.403676   1.0000   1.0079
     61    2 H     1      3.576065      9.078451      2.026264   1.0000   1.0079
     62    2 H     1      2.720238      9.146974      3.273164   1.0000   1.0079
     63    2 H     1      9.085561      4.493058      9.031660   1.0000   1.0079
     64    2 H     1      9.215391      3.166305      9.749133   1.0000   1.0079
     65    2 H     1      1.999705      2.060411      1.927796   1.0000   1.0079
     66    2 H     1      1.824184      0.564565      2.081195   1.0000   1.0079
     67    2 H     1      7.430334      0.849764      7.438978   1.0000   1.0079
     68    2 H     1      6.576029      1.537017      8.482885   1.0000   1.0079
     69    2 H     1      2.415851      1.576460      8.987338   1.0000   1.0079
     70    2 H     1      2.276957      0.099537      9.289499   1.0000   1.0079
     71    2 H     1      1.160987      1.818023      4.140602   1.0000   1.0079
     72    2 H     1      0.350256      2.874437      4.860741   1.0000   1.0079
     73    2 H     1      5.768804      2.638450      0.375264   1.0000   1.0079
     74    2 H     1      7.221823      2.257514      0.563730   1.0000   1.0079
     75    2 H     1      3.260797      5.243390      5.962382   1.0000   1.0079
     76    2 H     1      3.347848      3.732214      5.988196   1.0000   1.0079
     77    2 H     1      5.328688      9.073059      5.982269   1.0000   1.0079
     78    2 H     1      5.007063      9.672150      7.334875   1.0000   1.0079
     79    2 H     1      4.566850      6.413356      3.408312   1.0000   1.0079
     80    2 H     1      3.273115      7.061666      2.963521   1.0000   1.0079
     81    2 H     1      3.878372      7.435003      6.843607   1.0000   1.0079
     82    2 H     1      3.884673      6.966316      8.283117   1.0000   1.0079
     83    2 H     1      5.918240      3.116802      5.451335   1.0000   1.0079
     84    2 H     1      5.355924      2.495093      6.711958   1.0000   1.0079
     85    2 H     1      5.071858      7.687254     10.185667   1.0000   1.0079
     86    2 H     1      6.106394      7.112302      9.241707   1.0000   1.0079
     87    2 H     1      1.637363      5.184910      4.169264   1.0000   1.0079
     88    2 H     1      0.427645      4.908936      3.301903   1.0000   1.0079
     89    2 H     1      9.971698      7.227076      3.709104   1.0000   1.0079
     90    2 H     1     10.647901      8.579244      3.629806   1.0000   1.0079
     91    2 H     1      8.046808      5.126383      2.213838   1.0000   1.0079
     92    2 H     1      7.995317      4.290074      3.474723   1.0000   1.0079
     93    2 H     1      1.872601      7.864672      7.930401   1.0000   1.0079
     94    2 H     1      0.837635      8.186808      8.987268   1.0000   1.0079
     95    2 H     1      8.314696     10.115534      2.212519   1.0000   1.0079
     96    2 H     1      8.687134      8.667252      2.448452   1.0000   1.0079



 SCF PARAMETERS         Density guess:                                    ATOMIC
                        --------------------------------------------------------
                        max_scf:                                               1
                        max_scf_history:                                       0
                        max_diis:                                              4
                        --------------------------------------------------------
                        eps_scf:                                        1.00E-05
                        eps_scf_history:                                0.00E+00
                        eps_diis:                                       1.00E-01
                        eps_eigval:                                     1.00E-05
                        --------------------------------------------------------
                        level_shift [a.u.]:                             0.000000
                        --------------------------------------------------------
                        No outer SCF

 PW_GRID| Information for grid number                                          1
 PW_GRID| Grid distributed over                                     8 processors
 PW_GRID| Real space group dimensions                                     8    1
 PW_GRID| the grid is blocked:                                                NO
 PW_GRID| Cutoff [a.u.]                                                     70.0
 PW_GRID| spherical cutoff:                                                   NO
 PW_GRID|   Bounds   1            -36      35                Points:          72
 PW_GRID|   Bounds   2            -36      35                Points:          72
 PW_GRID|   Bounds   3            -36      35                Points:          72
 PW_GRID| Volume element (a.u.^3)  0.1729E-01     Volume (a.u.^3)      6454.6933
 PW_GRID| Grid span                                                    FULLSPACE
 PW_GRID|   Distribution                         Average         Max         Min
 PW_GRID|   G-Vectors                            46656.0       46656       46656
 PW_GRID|   G-Rays                                 648.0         648         648
 PW_GRID|   Real Space Points                    46656.0       46656       46656

 PW_GRID| Information for grid number                                          2
 PW_GRID| Number of the reference grid                                         1
 PW_GRID| Grid distributed over                                     8 processors
 PW_GRID| Real space group dimensions                                     8    1
 PW_GRID| the grid is blocked:                                                NO
 PW_GRID| Cutoff [a.u.]                                                     23.3
 PW_GRID| spherical cutoff:                                                   NO
 PW_GRID|   Bounds   1            -22      22                Points:          45
 PW_GRID|   Bounds   2            -22      22                Points:          45
 PW_GRID|   Bounds   3            -22      22                Points:          45
 PW_GRID| Volume element (a.u.^3)  0.7083E-01     Volume (a.u.^3)      6454.6933
 PW_GRID| Grid span                                                    FULLSPACE
 PW_GRID|   Distribution                         Average         Max         Min
 PW_GRID|   G-Vectors                            11390.6       11475       11340
 PW_GRID|   G-Rays                                 253.1         255         252
 PW_GRID|   Real Space Points                    11390.6       12150       10125

 PW_GRID| Information for grid number                                          3
 PW_GRID| Number of the reference grid                                         1
 PW_GRID| Grid distributed over                                     8 processors
 PW_GRID| Real space group dimensions                                     8    1
 PW_GRID| the grid is blocked:                                                NO
 PW_GRID| Cutoff [a.u.]                                                      7.8
 PW_GRID| spherical cutoff:                                                   NO
 PW_GRID|   Bounds   1            -12      11                Points:          24
 PW_GRID|   Bounds   2            -12      11                Points:          24
 PW_GRID|   Bounds   3            -12      11                Points:          24
 PW_GRID| Volume element (a.u.^3)  0.4669         Volume (a.u.^3)      6454.6933
 PW_GRID| Grid span                                                    FULLSPACE
 PW_GRID|   Distribution                         Average         Max         Min
 PW_GRID|   G-Vectors                             1728.0        1800        1680
 PW_GRID|   G-Rays                                  72.0          75          70
 PW_GRID|   Real Space Points                     1728.0        1728        1728

 PW_GRID| Information for grid number                                          4
 PW_GRID| Number of the reference grid                                         1
 PW_GRID| Grid distributed over                                     8 processors
 PW_GRID| Real space group dimensions                                     8    1
 PW_GRID| the grid is blocked:                                                NO
 PW_GRID| Cutoff [a.u.]                                                      2.6
 PW_GRID| spherical cutoff:                                                   NO
 PW_GRID|   Bounds   1             -7       7                Points:          15
 PW_GRID|   Bounds   2             -7       7                Points:          15
 PW_GRID|   Bounds   3             -7       7                Points:          15
 PW_GRID| Volume element (a.u.^3)   1.913         Volume (a.u.^3)      6454.6933
 PW_GRID| Grid span                                                    FULLSPACE
 PW_GRID|   Distribution                         Average         Max         Min
 PW_GRID|   G-Vectors                              421.9         435         405
 PW_GRID|   G-Rays                                  28.1          29          27
 PW_GRID|   Real Space Points                      421.9         450         225

 POISSON| Solver                                                        PERIODIC
 POISSON| Periodicity                                                        XYZ

 RS_GRID| Information for grid number                                          1
 RS_GRID|   Bounds   1            -36      35                Points:          72
 RS_GRID|   Bounds   2            -36      35                Points:          72
 RS_GRID|   Bounds   3            -36      35                Points:          72
 RS_GRID| Real space distribution over                                  8 groups
 RS_GRID| Real space distribution along direction                              3
 RS_GRID| Border size                                                         11
 RS_GRID|   Distribution                         Average         Max         Min
 RS_GRID|   Planes                                  31.0          31          31

 RS_GRID| Information for grid number                                          2
 RS_GRID|   Bounds   1            -22      22                Points:          45
 RS_GRID|   Bounds   2            -22      22                Points:          45
 RS_GRID|   Bounds   3            -22      22                Points:          45
 RS_GRID| Real space fully replicated
 RS_GRID| Group size                                                           1

 RS_GRID| Information for grid number                                          3
 RS_GRID|   Bounds   1            -12      11                Points:          24
 RS_GRID|   Bounds   2            -12      11                Points:          24
 RS_GRID|   Bounds   3            -12      11                Points:          24
 RS_GRID| Real space fully replicated
 RS_GRID| Group size                                                           1

 RS_GRID| Information for grid number                                          4
 RS_GRID|   Bounds   1             -7       7                Points:          15
 RS_GRID|   Bounds   2             -7       7                Points:          15
 RS_GRID|   Bounds   3             -7       7                Points:          15
 RS_GRID| Real space fully replicated
 RS_GRID| Group size                                                           1

  HFX_INFO| Replica ID:                                                        1
  HFX_INFO| FRACTION:                                               1.0000000000
  HFX_INFO| Interaction Potential:                                     TRUNCATED
  HFX_INFO| Cutoff Radius [angstrom]:                               3.0000000000
  HFX_INFO| EPS_SCHWARZ:                                                 1.0E-09
  HFX_INFO| EPS_SCHWARZ_FORCES                                           1.0E-07
  HFX_INFO| EPS_STORAGE_SCALING:                                         1.0E-01
  HFX_INFO| NBINS:                                                            64
  HFX_INFO| BLOCK_SIZE:                                                        3
  HFX_INFO| NUMBER_OF_SHELLS:                                               AUTO
  HFX_INFO| Number of periodic shells considered:                             -1
  HFX_INFO| Number of periodic cells considered:                              33


 Number of electrons:                                                        256
 Number of occupied orbitals:                                                128
 Number of molecular orbitals:                                               128

 Number of orbital functions:                                               1280
 Number of independent orbital functions:                                   1280

 Extrapolation method: initial_guess

 Atomic guess: The first density matrix is obtained in terms of atomic orbitals
               and electronic configurations assigned to each atomic kind

 Guess for atomic kind: O

 Electronic structure
    Total number of core electrons                                          2.00
    Total number of valence electrons                                       6.00
    Total number of electrons                                               8.00
    Multiplicity                                                   not specified
    S   [  2.00] 2.00
    P      4.00


 *******************************************************************************
                  Iteration          Convergence                     Energy [au]
 *******************************************************************************
                          1        0.542945                     -15.633085722479
                          2        0.616929                     -15.637057118501
                          3        0.218749E-01                 -15.708883685629
                          4        0.138813E-02                 -15.709019324623
                          5        0.123719E-04                 -15.709019607232
                          6        0.243437E-06                 -15.709019607272

 Energy components [Hartree]           Total Energy ::          -15.709019607272
                                        Band Energy ::           -2.998885326070
                                     Kinetic Energy ::           11.917417400142
                                   Potential Energy ::          -27.626437007415
                                      Virial (-V/T) ::            2.318156365580
                                        Core Energy ::          -26.237727616567
                                          XC Energy ::           -3.166774533252
                                     Coulomb Energy ::           13.695482542547
                       Total Pseudopotential Energy ::          -38.190047710152
                       Local Pseudopotential Energy ::          -39.500111087570
                    Nonlocal Pseudopotential Energy ::            1.310063377418
                                        Confinement ::            0.349026934425

 Orbital energies  State     L     Occupation   Energy[a.u.]          Energy[eV]

                       1     0          2.000      -0.857086          -23.322486

                       1     1          4.000      -0.321179           -8.739712


 Total Electron Density at R=0:                                         0.000097

 Guess for atomic kind: H

 Electronic structure
    Total number of core electrons                                          0.00
    Total number of valence electrons                                       1.00
    Total number of electrons                                               1.00
    Multiplicity                                                   not specified
    S      1.00


 *******************************************************************************
                  Iteration          Convergence                     Energy [au]
 *******************************************************************************
                          1        0.440306E-02                  -0.423510240552
                          2        0.325873E-03                  -0.423521886466
                          3        0.252175E-04                  -0.423522046867
                          4        0.637947E-08                  -0.423522047746

 Energy components [Hartree]           Total Energy ::           -0.423522047746
                                        Band Energy ::           -0.195260312317
                                     Kinetic Energy ::            0.470170892718
                                   Potential Energy ::           -0.893692940464
                                      Virial (-V/T) ::            1.900783213733
                                        Core Energy ::           -0.479696140216
                                          XC Energy ::           -0.247096505464
                                     Coulomb Energy ::            0.303270597934
                       Total Pseudopotential Energy ::           -0.967732969907
                       Local Pseudopotential Energy ::           -0.967732969907
                    Nonlocal Pseudopotential Energy ::            0.000000000000
                                        Confinement ::            0.178659369728

 Orbital energies  State     L     Occupation   Energy[a.u.]          Energy[eV]

                       1     0          1.000      -0.195260           -5.313303


 Total Electron Density at R=0:                                         0.240075
 Re-scaling the density matrix to get the right number of electrons
                  # Electrons              Trace(P)               Scaling factor
                          256               256.000                        1.000


 SCF WAVEFUNCTION OPTIMIZATION

  ----------------------------------- OT ---------------------------------------
  Minimizer      : DIIS                : direct inversion
                                         in the iterative subspace
                                         using   7 DIIS vectors
                                         safer DIIS on
  Preconditioner : FULL_KINETIC        : inversion of T + eS
  Precond_solver : DEFAULT
  stepsize       :    0.15000000                  energy_gap     :    0.20000000
  eps_taylor     :   0.10000E-15                  max_taylor     :             4
  ----------------------------------- OT ---------------------------------------

  Step     Update method      Time    Convergence         Total energy    Change
  ------------------------------------------------------------------------------

  HFX_MEM_INFO| Est. max. program size before HFX [MiB]:                    1197
